
     Program PWSCF v.7.2 starts on 25Feb2024 at 22:39:52 

     This program is part of the open-source Quantum ESPRESSO suite
     for quantum simulation of materials; please cite
         "P. Giannozzi et al., J. Phys.:Condens. Matter 21 395502 (2009);
         "P. Giannozzi et al., J. Phys.:Condens. Matter 29 465901 (2017);
         "P. Giannozzi et al., J. Chem. Phys. 152 154105 (2020);
          URL http://www.quantum-espresso.org", 
     in publications or presentations arising from this work. More details at
     http://www.quantum-espresso.org/quote

     Parallel version (MPI), running on    24 processors

     MPI processes distributed on     1 nodes
     44265 MiB available memory on the printing compute node when the environment starts
 
     Waiting for input...
     Reading input from standard input

     Current dimensions of program PWSCF are:
     Max number of different atomic species (ntypx) = 10
     Max number of k-points (npk) =  40000
     Max angular momentum in pseudopotentials (lmaxx) =  4
     file Cu.pbe-dn-kjpaw_psl.1.0.0.UPF: wavefunction(s)  4S 3D renormalized
     Message from routine setup:
     using ibrav=0 with symmetry is DISCOURAGED, use correct ibrav instead
 
     K-points division:     npool     =       2
     R & G space division:  proc/nbgrp/npool/nimage =      12
     Subspace diagonalization in iterative solution of the eigenvalue problem:
     a serial algorithm will be used

 
     Parallelization info
     --------------------
     sticks:   dense  smooth     PW     G-vecs:    dense   smooth      PW
     Min          31      24      8                  408      267      53
     Max          32      26      9                  410      269      56
     Sum         379     295     97                 4909     3215     645
 
     Using Slab Decomposition
 


     bravais-lattice index     =            0
     lattice parameter (alat)  =       4.8389  a.u.
     unit-cell volume          =      80.1156 (a.u.)^3
     number of atoms/cell      =            1
     number of atomic types    =            1
     number of electrons       =        11.00
     number of Kohn-Sham states=           10
     kinetic-energy cutoff     =      44.6641  Ry
     charge density cutoff     =     235.8754  Ry
     scf convergence threshold =      1.0E-08
     mixing beta               =       0.7000
     number of iterations used =            8  plain     mixing
     Exchange-correlation= SLA  PW   PBX  PBC
                           (   1   4   3   4   0   0   0)

     celldm(1)=   4.838871  celldm(2)=   0.000000  celldm(3)=   0.000000
     celldm(4)=   0.000000  celldm(5)=   0.000000  celldm(6)=   0.000000

     crystal axes: (cart. coord. in units of alat)
               a(1) = (   1.000000   0.000000   0.000000 )  
               a(2) = (   0.500000   0.866025   0.000000 )  
               a(3) = (   0.500000   0.288675   0.816497 )  

     reciprocal axes: (cart. coord. in units 2 pi/alat)
               b(1) = (  1.000000 -0.577350 -0.408248 )  
               b(2) = (  0.000000  1.154701 -0.408248 )  
               b(3) = (  0.000000  0.000000  1.224745 )  


     PseudoPot. # 1 for Cu read from file:
     ./pseudo/Cu.pbe-dn-kjpaw_psl.1.0.0.UPF
     MD5 check sum: cfffd1f38ee05704b3e17f46f1730a6f
     Pseudo is Projector augmented-wave + core cor, Zval = 11.0
     Generated using &quot;atomic&quot; code by A. Dal Corso  v.6.3
     Shape of augmentation charge: PSQ
     Using radial grid of 1199 points,  6 beta functions with: 
                l(1) =   0
                l(2) =   0
                l(3) =   1
                l(4) =   1
                l(5) =   2
                l(6) =   2
     Q(r) pseudized with 0 coefficients 


     atomic species   valence    mass     pseudopotential
        Cu            11.00    63.54600     Cu( 1.00)

     12 Sym. Ops., with inversion, found



   Cartesian axes

     site n.     atom                  positions (alat units)
         1           Cu  tau(   1) = (   0.0000000   0.0000000   0.0000000  )

     number of k points=    65  Gaussian smearing, width (Ry)=  0.0100
                       cart. coord. in units 2pi/alat
        k(    1) = (   0.0000000   0.0000000   0.0000000), wk =   0.0039062
        k(    2) = (   0.0000000   0.0000000   0.1530931), wk =   0.0078125
        k(    3) = (   0.0000000   0.0000000   0.3061862), wk =   0.0078125
        k(    4) = (   0.0000000   0.0000000   0.4592793), wk =   0.0078125
        k(    5) = (   0.0000000   0.0000000  -0.6123724), wk =   0.0039062
        k(    6) = (   0.0000000   0.1443376  -0.0510310), wk =   0.0234375
        k(    7) = (   0.0000000   0.1443376   0.1020621), wk =   0.0234375
        k(    8) = (   0.0000000   0.1443376   0.2551552), wk =   0.0234375
        k(    9) = (   0.0000000   0.1443376   0.4082483), wk =   0.0234375
        k(   10) = (   0.0000000   0.1443376  -0.6634035), wk =   0.0234375
        k(   11) = (   0.0000000   0.1443376  -0.5103104), wk =   0.0234375
        k(   12) = (   0.0000000   0.1443376  -0.3572173), wk =   0.0234375
        k(   13) = (   0.0000000   0.1443376  -0.2041241), wk =   0.0234375
        k(   14) = (   0.0000000   0.2886751  -0.1020621), wk =   0.0234375
        k(   15) = (   0.0000000   0.2886751   0.0510310), wk =   0.0234375
        k(   16) = (   0.0000000   0.2886751   0.2041241), wk =   0.0234375
        k(   17) = (   0.0000000   0.2886751   0.3572173), wk =   0.0234375
        k(   18) = (   0.0000000   0.2886751  -0.7144345), wk =   0.0234375
        k(   19) = (   0.0000000   0.2886751  -0.5613414), wk =   0.0234375
        k(   20) = (   0.0000000   0.2886751  -0.4082483), wk =   0.0234375
        k(   21) = (   0.0000000   0.2886751  -0.2551552), wk =   0.0234375
        k(   22) = (   0.0000000   0.4330127  -0.1530931), wk =   0.0234375
        k(   23) = (   0.0000000   0.4330127   0.0000000), wk =   0.0234375
        k(   24) = (   0.0000000   0.4330127   0.1530931), wk =   0.0234375
        k(   25) = (   0.0000000   0.4330127   0.3061862), wk =   0.0234375
        k(   26) = (   0.0000000   0.4330127  -0.7654655), wk =   0.0234375
        k(   27) = (   0.0000000   0.4330127  -0.6123724), wk =   0.0234375
        k(   28) = (   0.0000000   0.4330127  -0.4592793), wk =   0.0234375
        k(   29) = (   0.0000000   0.4330127  -0.3061862), wk =   0.0234375
        k(   30) = (   0.0000000  -0.5773503   0.2041241), wk =   0.0117188
        k(   31) = (   0.0000000  -0.5773503   0.3572173), wk =   0.0234375
        k(   32) = (   0.0000000  -0.5773503   0.5103104), wk =   0.0234375
        k(   33) = (   0.0000000  -0.5773503   0.6634035), wk =   0.0234375
        k(   34) = (   0.0000000  -0.5773503  -0.4082483), wk =   0.0117188
        k(   35) = (   0.1250000   0.2165064  -0.1530931), wk =   0.0468750
        k(   36) = (   0.1250000   0.2165064   0.0000000), wk =   0.0234375
        k(   37) = (   0.1250000   0.2165064   0.3061862), wk =   0.0468750
        k(   38) = (   0.1250000   0.2165064  -0.7654655), wk =   0.0468750
        k(   39) = (   0.1250000   0.2165064  -0.6123724), wk =   0.0234375
        k(   40) = (   0.1250000   0.3608439  -0.2041241), wk =   0.0468750
        k(   41) = (   0.1250000   0.3608439  -0.0510310), wk =   0.0468750
        k(   42) = (   0.1250000   0.3608439   0.1020621), wk =   0.0468750
        k(   43) = (   0.1250000   0.3608439   0.2551552), wk =   0.0468750
        k(   44) = (   0.1250000   0.3608439  -0.8164966), wk =   0.0468750
        k(   45) = (   0.1250000   0.3608439  -0.6634035), wk =   0.0468750
        k(   46) = (   0.1250000   0.3608439  -0.5103104), wk =   0.0468750
        k(   47) = (   0.1250000   0.3608439  -0.3572173), wk =   0.0468750
        k(   48) = (   0.1250000  -0.6495191   0.1530931), wk =   0.0468750
        k(   49) = (   0.1250000  -0.6495191   0.3061862), wk =   0.0468750
        k(   50) = (   0.1250000  -0.6495191   0.4592793), wk =   0.0468750
        k(   51) = (   0.1250000  -0.6495191   0.6123724), wk =   0.0468750
        k(   52) = (   0.1250000  -0.6495191  -0.4592793), wk =   0.0468750
        k(   53) = (   0.1250000  -0.6495191  -0.3061862), wk =   0.0468750
        k(   54) = (   0.1250000  -0.6495191  -0.1530931), wk =   0.0468750
        k(   55) = (   0.1250000  -0.6495191   0.0000000), wk =   0.0468750
        k(   56) = (   0.2500000  -0.7216878   0.1020621), wk =   0.0468750
        k(   57) = (   0.2500000  -0.7216878   0.2551552), wk =   0.0468750
        k(   58) = (   0.2500000  -0.7216878   0.4082483), wk =   0.0234375
        k(   59) = (   0.2500000  -0.7216878  -0.3572173), wk =   0.0468750
        k(   60) = (   0.2500000  -0.7216878  -0.2041241), wk =   0.0234375
        k(   61) = (   0.2500000  -0.5773503   0.0510310), wk =   0.0468750
        k(   62) = (   0.2500000  -0.5773503   0.2041241), wk =   0.0234375
        k(   63) = (   0.2500000  -0.5773503   0.5103104), wk =   0.0468750
        k(   64) = (   0.2500000  -0.5773503  -0.5613414), wk =   0.0468750
        k(   65) = (   0.2500000  -0.5773503  -0.4082483), wk =   0.0234375

     Dense  grid:     4909 G-vectors     FFT dimensions: (  24,  24,  24)

     Smooth grid:     3215 G-vectors     FFT dimensions: (  24,  24,  24)

     Estimated max dynamical RAM per process >       2.25 MB

     Estimated total dynamical RAM >      52.79 MB

     Initial potential from superposition of free atoms

     starting charge      10.9998, renormalised to      11.0000
     Starting wfcs are    9 randomized atomic wfcs +    1 random wfcs
     Checking if some PAW data can be deallocated... 

     total cpu time spent up to now is        0.3 secs

     Self-consistent Calculation

     iteration #  1     ecut=    44.66 Ry     beta= 0.70
     Davidson diagonalization with overlap
     ethr =  1.00E-02,  avg # of iterations =  3.9

     Threshold (ethr) on eigenvalues was too large:
     Diagonalizing with lowered threshold

     Davidson diagonalization with overlap
     ethr =  5.61E-04,  avg # of iterations =  1.2

     total cpu time spent up to now is        0.7 secs

     total energy              =    -213.05517634 Ry
     estimated scf accuracy    <       0.06154117 Ry

     iteration #  2     ecut=    44.66 Ry     beta= 0.70
     Davidson diagonalization with overlap
     ethr =  5.59E-04,  avg # of iterations =  2.1

     total cpu time spent up to now is        0.9 secs

     total energy              =    -213.05674805 Ry
     estimated scf accuracy    <       0.22691193 Ry

     iteration #  3     ecut=    44.66 Ry     beta= 0.70
     Davidson diagonalization with overlap
     ethr =  5.59E-04,  avg # of iterations =  2.1

     total cpu time spent up to now is        1.0 secs

     total energy              =    -213.09193596 Ry
     estimated scf accuracy    <       0.00017291 Ry

     iteration #  4     ecut=    44.66 Ry     beta= 0.70
     Davidson diagonalization with overlap
     ethr =  1.57E-06,  avg # of iterations =  3.5

     total cpu time spent up to now is        1.2 secs

     total energy              =    -213.09200429 Ry
     estimated scf accuracy    <       0.00004264 Ry

     iteration #  5     ecut=    44.66 Ry     beta= 0.70
     Davidson diagonalization with overlap
     ethr =  3.88E-07,  avg # of iterations =  1.2

     total cpu time spent up to now is        1.4 secs

     total energy              =    -213.09201356 Ry
     estimated scf accuracy    <       0.00000179 Ry

     iteration #  6     ecut=    44.66 Ry     beta= 0.70
     Davidson diagonalization with overlap
     ethr =  1.63E-08,  avg # of iterations =  1.6

     total cpu time spent up to now is        1.5 secs

     total energy              =    -213.09201399 Ry
     estimated scf accuracy    <       0.00000001 Ry

     iteration #  7     ecut=    44.66 Ry     beta= 0.70
     Davidson diagonalization with overlap
     ethr =  1.17E-10,  avg # of iterations =  3.6

     total cpu time spent up to now is        1.7 secs

     End of self-consistent calculation

          k = 0.0000 0.0000 0.0000 (   411 PWs)   bands (ev):

     3.2140   9.6040   9.6040   9.6040  10.4288  10.4288  35.4373  37.7953
    37.7953  37.7953

          k = 0.0000 0.0000 0.1531 (   396 PWs)   bands (ev):

     3.7748   9.4941   9.6981   9.6981  10.4005  10.4005  31.3636  35.9620
    36.5305  36.5305

          k = 0.0000 0.0000 0.3062 (   395 PWs)   bands (ev):

     5.3303   9.3445   9.7608   9.7608  10.5130  10.5130  24.9729  35.2158
    35.2900  35.2900

          k = 0.0000 0.0000 0.4593 (   407 PWs)   bands (ev):

     7.0602   9.6401   9.6401   9.9793  10.8361  10.8361  19.4291  34.2605
    34.6929  34.6929

          k = 0.0000 0.0000-0.6124 (   410 PWs)   bands (ev):

     7.5277   9.5702   9.5702  10.9988  10.9988  11.5474  16.3083  33.8471
    34.5675  34.5675

          k = 0.0000 0.1443-0.0510 (   396 PWs)   bands (ev):

     3.7748   9.4941   9.6981   9.6981  10.4005  10.4005  31.3636  35.9620
    36.5305  36.5305

          k = 0.0000 0.1443 0.1021 (   391 PWs)   bands (ev):

     3.9598   9.3891   9.7826   9.7826  10.2405  10.5085  33.5486  33.7620
    33.7620  35.5798

          k = 0.0000 0.1443 0.2552 (   397 PWs)   bands (ev):

     5.1853   9.1746   9.8148   9.9277  10.3085  10.6302  27.4191  31.9699
    33.3525  35.7675

          k = 0.0000 0.1443 0.4082 (   397 PWs)   bands (ev):

     6.9630   9.2029   9.5773   9.8689  10.8947  11.0421  21.5160  31.2583
    31.9792  33.6066

          k = 0.0000 0.1443-0.6634 (   401 PWs)   bands (ev):

     7.7861   9.3691   9.7583   9.9321  11.0103  12.7057  16.9881  29.9989
    31.7638  33.3462

          k = 0.0000 0.1443-0.5103 (   399 PWs)   bands (ev):

     7.6771   9.4416   9.7579   9.7841  10.7931  12.1577  18.2406  28.8438
    33.5569  34.1948

          k = 0.0000 0.1443-0.3572 (   398 PWs)   bands (ev):

     6.3962   9.2062   9.6483   9.8865  10.3721  11.0823  23.3998  28.7596
    36.1076  36.5344

          k = 0.0000 0.1443-0.2041 (   389 PWs)   bands (ev):

     4.6741   9.3160   9.7772   9.8565  10.2232  10.5995  29.2805  29.9846
    38.1254  39.1307

          k = 0.0000 0.2887-0.1021 (   395 PWs)   bands (ev):

     5.3303   9.3445   9.7608   9.7608  10.5130  10.5130  24.9729  35.2158
    35.2900  35.2900

          k = 0.0000 0.2887 0.0510 (   397 PWs)   bands (ev):

     5.1853   9.1746   9.8148   9.9277  10.3085  10.6302  27.4191  31.9699
    33.3525  35.7675

          k = 0.0000 0.2887 0.2041 (   415 PWs)   bands (ev):

     5.9720   8.8842   9.9628  10.2661  10.2661  10.7015  29.6058  29.6058
    30.9027  31.5513

          k = 0.0000 0.2887 0.3572 (   409 PWs)   bands (ev):

     7.2893   8.6913   9.7821  10.3594  10.9211  11.1836  24.4640  27.6702
    28.4209  32.0529

          k = 0.0000 0.2887-0.7144 (   404 PWs)   bands (ev):

     8.1763   8.7551   9.6155  10.2438  11.0395  13.5158  19.2493  25.0927
    28.6124  32.1480

          k = 0.0000 0.2887-0.5613 (   402 PWs)   bands (ev):

     8.4240   8.9388   9.4451  10.1464  10.8135  14.6985  17.7978  23.5046
    30.2023  32.8147

          k = 0.0000 0.2887-0.4082 (   407 PWs)   bands (ev):

     7.8808   9.0933   9.3026  10.1027  10.4289  12.2934  22.2433  23.4338
    32.9690  34.2797

          k = 0.0000 0.2887-0.2552 (   398 PWs)   bands (ev):

     6.3962   9.2062   9.6483   9.8865  10.3721  11.0823  23.3998  28.7596
    36.1076  36.5344

          k = 0.0000 0.4330-0.1531 (   407 PWs)   bands (ev):

     7.0602   9.6401   9.6401   9.9793  10.8361  10.8361  19.4291  34.2605
    34.6929  34.6929

          k = 0.0000 0.4330 0.0000 (   397 PWs)   bands (ev):

     6.9630   9.2029   9.5773   9.8689  10.8947  11.0421  21.5160  31.2583
    31.9792  33.6066

          k = 0.0000 0.4330 0.1531 (   409 PWs)   bands (ev):

     7.2893   8.6913   9.7821  10.3594  10.9211  11.1836  24.4640  27.6702
    28.4209  32.0529

          k = 0.0000 0.4330 0.3062 (   404 PWs)   bands (ev):

     7.6036   8.3998  10.8558  10.8558  10.8988  11.3451  23.9420  26.6981
    26.6981  30.4479

          k = 0.0000 0.4330-0.7655 (   409 PWs)   bands (ev):

     7.9072   8.3524  10.5014  10.7787  11.0814  13.8739  21.2736  22.7751
    26.4217  31.2676

          k = 0.0000 0.4330-0.6124 (   399 PWs)   bands (ev):

     8.3209   8.5533   9.8549  10.5627  10.9462  16.8814  18.2802  20.3643
    27.6798  31.8232

          k = 0.0000 0.4330-0.4593 (   402 PWs)   bands (ev):

     8.4240   8.9388   9.4451  10.1464  10.8135  14.6985  17.7978  23.5046
    30.2023  32.8147

          k = 0.0000 0.4330-0.3062 (   399 PWs)   bands (ev):

     7.6771   9.4416   9.7579   9.7841  10.7931  12.1577  18.2406  28.8438
    33.5568  34.1948

          k = 0.0000-0.5774 0.2041 (   410 PWs)   bands (ev):

     7.5277   9.5702   9.5702  10.9988  10.9988  11.5474  16.3083  33.8471
    34.5675  34.5675

          k = 0.0000-0.5774 0.3572 (   401 PWs)   bands (ev):

     7.7861   9.3691   9.7583   9.9321  11.0103  12.7057  16.9881  29.9989
    31.7638  33.3462

          k = 0.0000-0.5774 0.5103 (   404 PWs)   bands (ev):

     8.1763   8.7551   9.6155  10.2438  11.0395  13.5158  19.2493  25.0927
    28.6124  32.1480

          k = 0.0000-0.5774 0.6634 (   409 PWs)   bands (ev):

     7.9072   8.3524  10.5014  10.7787  11.0814  13.8739  21.2736  22.7751
    26.4217  31.2676

          k = 0.0000-0.5774-0.4082 (   388 PWs)   bands (ev):

     7.7383   8.2055  10.9812  11.1427  11.1427  14.0410  19.6472  25.6199
    25.6199  30.1068

          k = 0.1250 0.2165-0.1531 (   397 PWs)   bands (ev):

     5.1853   9.1746   9.8148   9.9277  10.3085  10.6302  27.4191  31.9699
    33.3525  35.7675

          k = 0.1250 0.2165 0.0000 (   389 PWs)   bands (ev):

     4.6741   9.3160   9.7772   9.8565  10.2232  10.5996  29.2805  29.9846
    38.1254  39.1306

          k = 0.1250 0.2165 0.3062 (   407 PWs)   bands (ev):

     6.5631   8.9624   9.5948  10.2755  10.3140  11.1122  25.8406  26.5110
    31.7912  36.3925

          k = 0.1250 0.2165-0.7655 (   406 PWs)   bands (ev):

     7.9697   9.0089   9.3261  10.1519  10.7671  12.4465  20.5347  25.9885
    28.8957  36.4496

          k = 0.1250 0.2165-0.6124 (   414 PWs)   bands (ev):

     8.2990   9.0024   9.5255  10.0501  10.9432  14.6736  16.8021  26.7244
    27.0783  36.1742

          k = 0.1250 0.3608-0.2041 (   397 PWs)   bands (ev):

     6.9630   9.2029   9.5773   9.8689  10.8947  11.0421  21.5160  31.2583
    31.9792  33.6066

          k = 0.1250 0.3608-0.0510 (   398 PWs)   bands (ev):

     6.3962   9.2062   9.6483   9.8865  10.3721  11.0823  23.3998  28.7596
    36.1076  36.5344

          k = 0.1250 0.3608 0.1021 (   407 PWs)   bands (ev):

     6.5631   8.9624   9.5948  10.2755  10.3140  11.1122  25.8406  26.5110
    31.7912  36.3924

          k = 0.1250 0.3608 0.2552 (   409 PWs)   bands (ev):

     7.2893   8.6913   9.7821  10.3594  10.9211  11.1836  24.4640  27.6702
    28.4209  32.0529

          k = 0.1250 0.3608-0.8165 (   410 PWs)   bands (ev):

     8.0065   8.5776   9.7504  10.7015  10.8524  12.8081  23.4526  24.1805
    24.5934  34.6992

          k = 0.1250 0.3608-0.6634 (   406 PWs)   bands (ev):

     8.4355   8.7012   9.4936  10.4540  11.0233  15.8932  18.9197  22.2979
    24.5322  35.8144

          k = 0.1250 0.3608-0.5103 (   405 PWs)   bands (ev):

     8.6700   8.8723   9.1106  10.3416  10.8567  15.0073  19.7220  21.6624
    26.2458  36.9681

          k = 0.1250 0.3608-0.3572 (   406 PWs)   bands (ev):

     7.9697   9.0089   9.3261  10.1519  10.7671  12.4465  20.5347  25.9885
    28.8957  36.4496

          k = 0.1250-0.6495 0.1531 (   401 PWs)   bands (ev):

     7.7861   9.3691   9.7583   9.9321  11.0103  12.7057  16.9881  29.9989
    31.7638  33.3462

          k = 0.1250-0.6495 0.3062 (   399 PWs)   bands (ev):

     7.6771   9.4416   9.7579   9.7841  10.7931  12.1577  18.2406  28.8438
    33.5569  34.1948

          k = 0.1250-0.6495 0.4593 (   406 PWs)   bands (ev):

     7.9697   9.0089   9.3261  10.1519  10.7671  12.4465  20.5347  25.9885
    28.8957  36.4496

          k = 0.1250-0.6495 0.6124 (   410 PWs)   bands (ev):

     8.0065   8.5776   9.7504  10.7015  10.8524  12.8081  23.4526  24.1805
    24.5934  34.6991

          k = 0.1250-0.6495-0.4593 (   409 PWs)   bands (ev):

     7.9072   8.3524  10.5014  10.7787  11.0814  13.8739  21.2736  22.7751
    26.4217  31.2676

          k = 0.1250-0.6495-0.3062 (   408 PWs)   bands (ev):

     8.0595   8.4183  10.2089  10.7334  11.1428  15.6473  19.9406  22.5496
    23.4470  34.1418

          k = 0.1250-0.6495-0.1531 (   406 PWs)   bands (ev):

     8.4355   8.7012   9.4936  10.4540  11.0233  15.8932  18.9197  22.2979
    24.5322  35.8144

          k = 0.1250-0.6495 0.0000 (   414 PWs)   bands (ev):

     8.2990   9.0024   9.5255  10.0501  10.9432  14.6736  16.8021  26.7244
    27.0783  36.1742

          k = 0.2500-0.7217 0.1021 (   404 PWs)   bands (ev):

     8.1763   8.7551   9.6155  10.2438  11.0395  13.5158  19.2493  25.0927
    28.6124  32.1480

          k = 0.2500-0.7217 0.2552 (   406 PWs)   bands (ev):

     7.9697   9.0089   9.3261  10.1519  10.7671  12.4465  20.5347  25.9885
    28.8957  36.4496

          k = 0.2500-0.7217 0.4082 (   407 PWs)   bands (ev):

     7.8809   9.0933   9.3026  10.1027  10.4289  12.2934  22.2433  23.4338
    32.9690  34.2797

          k = 0.2500-0.7217-0.3572 (   406 PWs)   bands (ev):

     8.4355   8.7012   9.4936  10.4540  11.0233  15.8932  18.9197  22.2979
    24.5322  35.8144

          k = 0.2500-0.7217-0.2041 (   396 PWs)   bands (ev):

     8.4799   9.0881   9.0881  10.3866  11.1435  18.7477  18.7477  20.8573
    21.3076  40.8888

          k = 0.2500-0.5774 0.0510 (   402 PWs)   bands (ev):

     8.4240   8.9388   9.4451  10.1464  10.8135  14.6985  17.7978  23.5046
    30.2023  32.8147

          k = 0.2500-0.5774 0.2041 (   414 PWs)   bands (ev):

     8.2990   9.0024   9.5255  10.0501  10.9432  14.6736  16.8021  26.7244
    27.0783  36.1742

          k = 0.2500-0.5774 0.5103 (   405 PWs)   bands (ev):

     8.6700   8.8723   9.1106  10.3416  10.8567  15.0073  19.7220  21.6624
    26.2458  36.9681

          k = 0.2500-0.5774-0.5613 (   406 PWs)   bands (ev):

     8.4355   8.7012   9.4936  10.4540  11.0233  15.8932  18.9197  22.2979
    24.5322  35.8144

          k = 0.2500-0.5774-0.4082 (   399 PWs)   bands (ev):

     8.3209   8.5533   9.8549  10.5627  10.9462  16.8814  18.2802  20.3643
    27.6798  31.8232

     the Fermi energy is    12.5395 ev

!    total energy              =    -213.09201400 Ry
     total all-electron energy =     -3309.971780 Ry
     estimated scf accuracy    <          1.3E-11 Ry
     smearing contrib. (-TS)   =      -0.00040131 Ry
     internal energy E=F+TS    =    -213.09161269 Ry

     The total energy is F=E-TS. E is the sum of the following terms:
     one-electron contribution =     -28.26286623 Ry
     hartree contribution      =      30.71651494 Ry
     xc contribution           =     -44.62961493 Ry
     ewald contribution        =     -81.06859525 Ry
     one-center paw contrib.   =     -89.84705122 Ry

     convergence has been achieved in   7 iterations

     Writing all to output data dir ./tmp/cu.save/
 
     init_run     :      0.16s CPU      0.19s WALL (       1 calls)
     electrons    :      1.19s CPU      1.40s WALL (       1 calls)

     Called by init_run:
     wfcinit      :      0.03s CPU      0.03s WALL (       1 calls)
     potinit      :      0.09s CPU      0.10s WALL (       1 calls)
     hinit0       :      0.03s CPU      0.04s WALL (       1 calls)

     Called by electrons:
     c_bands      :      0.69s CPU      0.78s WALL (       8 calls)
     sum_band     :      0.08s CPU      0.09s WALL (       8 calls)
     v_of_rho     :      0.00s CPU      0.00s WALL (       8 calls)
     newd         :      0.00s CPU      0.00s WALL (       8 calls)
     PAW_pot      :      0.48s CPU      0.58s WALL (       8 calls)
     mix_rho      :      0.00s CPU      0.00s WALL (       8 calls)

     Called by c_bands:
     init_us_2    :      0.00s CPU      0.00s WALL (     561 calls)
     init_us_2:cp :      0.00s CPU      0.00s WALL (     561 calls)
     cegterg      :      0.43s CPU      0.51s WALL (     264 calls)

     Called by *egterg:
     cdiaghg      :      0.05s CPU      0.06s WALL (     881 calls)
     h_psi        :      0.35s CPU      0.42s WALL (     947 calls)
     s_psi        :      0.00s CPU      0.00s WALL (     947 calls)
     g_psi        :      0.00s CPU      0.00s WALL (     650 calls)

     Called by h_psi:
     h_psi:calbec :      0.02s CPU      0.03s WALL (     947 calls)
     vloc_psi     :      0.32s CPU      0.38s WALL (     947 calls)
     add_vuspsi   :      0.00s CPU      0.00s WALL (     947 calls)

     General routines
     calbec       :      0.03s CPU      0.03s WALL (    1211 calls)
     fft          :      0.00s CPU      0.01s WALL (     103 calls)
     ffts         :      0.01s CPU      0.01s WALL (      16 calls)
     fftw         :      0.35s CPU      0.42s WALL (   16374 calls)
     interpolate  :      0.00s CPU      0.00s WALL (       8 calls)
 
     Parallel routines
 
     PWSCF        :      1.52s CPU      1.82s WALL

 
   This run was terminated on:  22:39:54  25Feb2024            

=------------------------------------------------------------------------------=
   JOB DONE.
=------------------------------------------------------------------------------=
