
     Program PWSCF v.7.2 starts on 25Feb2024 at 22:51:28 

     This program is part of the open-source Quantum ESPRESSO suite
     for quantum simulation of materials; please cite
         "P. Giannozzi et al., J. Phys.:Condens. Matter 21 395502 (2009);
         "P. Giannozzi et al., J. Phys.:Condens. Matter 29 465901 (2017);
         "P. Giannozzi et al., J. Chem. Phys. 152 154105 (2020);
          URL http://www.quantum-espresso.org", 
     in publications or presentations arising from this work. More details at
     http://www.quantum-espresso.org/quote

     Parallel version (MPI), running on    24 processors

     MPI processes distributed on     1 nodes
     43855 MiB available memory on the printing compute node when the environment starts
 
     Waiting for input...
     Reading input from standard input
Warning: card &CELL ignored
Warning: card / ignored

     Current dimensions of program PWSCF are:
     Max number of different atomic species (ntypx) = 10
     Max number of k-points (npk) =  40000
     Max angular momentum in pseudopotentials (lmaxx) =  4
     file Cu.pbe-dn-kjpaw_psl.1.0.0.UPF: wavefunction(s)  4S 3D renormalized
     Found identity + (  0.0000  0.0000  0.5000) symmetry
     This is a supercell, fractional translations are disabled
     Message from routine setup:
     using ibrav=0 with symmetry is DISCOURAGED, use correct ibrav instead
 
     K-points division:     npool     =       2
     R & G space division:  proc/nbgrp/npool/nimage =      12
     Subspace diagonalization in iterative solution of the eigenvalue problem:
     a serial algorithm will be used

 
     Parallelization info
     --------------------
     sticks:   dense  smooth     PW     G-vecs:    dense   smooth      PW
     Min         126      96     26                 3264     2151     319
     Max         127      97     27                 3267     2153     324
     Sum        1519    1159    313                39189    25821    3839
 
     Using Slab Decomposition
 


     bravais-lattice index     =            0
     lattice parameter (alat)  =       9.6777  a.u.
     unit-cell volume          =     640.9239 (a.u.)^3
     number of atoms/cell      =            8
     number of atomic types    =            1
     number of electrons       =        88.00
     number of Kohn-Sham states=           53
     kinetic-energy cutoff     =      44.6641  Ry
     charge density cutoff     =     235.8754  Ry
     scf convergence threshold =      1.0E-06
     mixing beta               =       0.7000
     number of iterations used =            8  plain     mixing
     Exchange-correlation= SLA  PW   PBX  PBC
                           (   1   4   3   4   0   0   0)

     celldm(1)=   9.677737  celldm(2)=   0.000000  celldm(3)=   0.000000
     celldm(4)=   0.000000  celldm(5)=   0.000000  celldm(6)=   0.000000

     crystal axes: (cart. coord. in units of alat)
               a(1) = (   1.000000   0.000000   0.000000 )  
               a(2) = (   0.500000   0.866025   0.000000 )  
               a(3) = (   0.500000   0.288675   0.816497 )  

     reciprocal axes: (cart. coord. in units 2 pi/alat)
               b(1) = (  1.000000 -0.577350 -0.408248 )  
               b(2) = (  0.000000  1.154701 -0.408248 )  
               b(3) = (  0.000000  0.000000  1.224745 )  


     PseudoPot. # 1 for Cu read from file:
     ./pseudo/Cu.pbe-dn-kjpaw_psl.1.0.0.UPF
     MD5 check sum: cfffd1f38ee05704b3e17f46f1730a6f
     Pseudo is Projector augmented-wave + core cor, Zval = 11.0
     Generated using &quot;atomic&quot; code by A. Dal Corso  v.6.3
     Shape of augmentation charge: PSQ
     Using radial grid of 1199 points,  6 beta functions with: 
                l(1) =   0
                l(2) =   0
                l(3) =   1
                l(4) =   1
                l(5) =   2
                l(6) =   2
     Q(r) pseudized with 0 coefficients 


     atomic species   valence    mass     pseudopotential
        Cu            11.00    63.54600     Cu( 1.00)

     12 Sym. Ops., with inversion, found



   Cartesian axes

     site n.     atom                  positions (alat units)
         1           Cu  tau(   1) = (   0.0000000   0.0000000   0.0000000  )
         2           Cu  tau(   2) = (   0.2500000   0.1443376   0.4082483  )
         3           Cu  tau(   3) = (   0.2500000   0.4330127   0.0000000  )
         4           Cu  tau(   4) = (   0.5000000   0.5773503   0.4082483  )
         5           Cu  tau(   5) = (   0.5000000   0.0000000   0.0000000  )
         6           Cu  tau(   6) = (   0.7500000   0.1443376   0.4082483  )
         7           Cu  tau(   7) = (   0.7500000   0.4330127   0.0000000  )
         8           Cu  tau(   8) = (   1.0000000   0.5773503   0.4082483  )

     number of k points=     4  Gaussian smearing, width (Ry)=  0.0100
                       cart. coord. in units 2pi/alat
        k(    1) = (   0.0000000   0.0000000   0.0000000), wk =   0.2500000
        k(    2) = (   0.0000000   0.0000000  -0.6123724), wk =   0.2500000
        k(    3) = (   0.0000000  -0.5773503   0.2041241), wk =   0.7500000
        k(    4) = (   0.0000000  -0.5773503  -0.4082483), wk =   0.7500000

     Dense  grid:    39189 G-vectors     FFT dimensions: (  48,  48,  48)

     Smooth grid:    25821 G-vectors     FFT dimensions: (  45,  45,  45)

     Estimated max dynamical RAM per process >       9.32 MB

     Estimated total dynamical RAM >     214.07 MB

     Initial potential from superposition of free atoms

     starting charge      87.9982, renormalised to      88.0000
     Starting wfcs are   72 randomized atomic wfcs
     Checking if some PAW data can be deallocated... 

     total cpu time spent up to now is        0.5 secs

     Self-consistent Calculation

     iteration #  1     ecut=    44.66 Ry     beta= 0.70
     Davidson diagonalization with overlap
     ethr =  1.00E-02,  avg # of iterations =  2.5

     Threshold (ethr) on eigenvalues was too large:
     Diagonalizing with lowered threshold

     Davidson diagonalization with overlap
     ethr =  3.78E-04,  avg # of iterations =  2.0

     total cpu time spent up to now is        0.8 secs

     total energy              =   -1704.40640654 Ry
     estimated scf accuracy    <       0.43799150 Ry

     iteration #  2     ecut=    44.66 Ry     beta= 0.70
     Davidson diagonalization with overlap
     ethr =  4.98E-04,  avg # of iterations =  3.2

     total cpu time spent up to now is        1.1 secs

     total energy              =   -1704.43549647 Ry
     estimated scf accuracy    <       1.37410030 Ry

     iteration #  3     ecut=    44.66 Ry     beta= 0.70
     Davidson diagonalization with overlap
     ethr =  4.98E-04,  avg # of iterations =  2.0

     total cpu time spent up to now is        1.3 secs

     total energy              =   -1704.65697214 Ry
     estimated scf accuracy    <       0.00123436 Ry

     iteration #  4     ecut=    44.66 Ry     beta= 0.70
     Davidson diagonalization with overlap
     ethr =  1.40E-06,  avg # of iterations =  5.8

     total cpu time spent up to now is        1.7 secs

     total energy              =   -1704.65865729 Ry
     estimated scf accuracy    <       0.00544202 Ry

     iteration #  5     ecut=    44.66 Ry     beta= 0.70
     Davidson diagonalization with overlap
     ethr =  1.40E-06,  avg # of iterations =  2.0

     total cpu time spent up to now is        1.9 secs

     total energy              =   -1704.65870712 Ry
     estimated scf accuracy    <       0.00123265 Ry

     iteration #  6     ecut=    44.66 Ry     beta= 0.70
     Davidson diagonalization with overlap
     ethr =  1.40E-06,  avg # of iterations =  2.0

     total cpu time spent up to now is        2.1 secs

     total energy              =   -1704.65879634 Ry
     estimated scf accuracy    <       0.00010180 Ry

     iteration #  7     ecut=    44.66 Ry     beta= 0.70
     Davidson diagonalization with overlap
     ethr =  1.16E-07,  avg # of iterations =  2.0

     total cpu time spent up to now is        2.3 secs

     total energy              =   -1704.65881301 Ry
     estimated scf accuracy    <       0.00000273 Ry

     iteration #  8     ecut=    44.66 Ry     beta= 0.70
     Davidson diagonalization with overlap
     ethr =  3.10E-09,  avg # of iterations =  4.5

     total cpu time spent up to now is        2.6 secs

     End of self-consistent calculation

          k = 0.0000 0.0000 0.0000 (  3215 PWs)   bands (ev):

     3.2102   7.5039   7.5039   7.5039   7.5039   7.7127   7.7127   7.7127
     8.1739   8.1739   8.1739   9.5352   9.5352   9.5352   9.5352   9.5352
     9.5352   9.5352   9.5352   9.5678   9.5678   9.5678  10.3917  10.3917
    10.9428  10.9428  10.9428  10.9595  10.9595  10.9595  10.9596  10.9596
    10.9596  10.9596  10.9596  11.1026  11.1026  11.1026  11.1026  11.1026
    11.1026  11.5444  11.5444  11.5444  11.5445  14.0370  14.0370  14.0370
    16.2873  16.2874  16.2874  16.2874  19.6305

          k = 0.0000 0.0000-0.6124 (  3214 PWs)   bands (ev):

     5.3252   5.3255   8.1511   8.1511   8.1511   8.1515   8.1515   8.1515
     8.7259   8.7259   8.7259   8.7263   8.7263   8.7263   9.3117   9.3120
     9.5839   9.5839   9.5839   9.5842   9.5842   9.5842   9.7245   9.7245
     9.7250   9.7250  10.2070  10.2070  10.2070  10.2074  10.2074  10.2074
    10.4753  10.4753  10.4757  10.4757  10.9999  10.9999  10.9999  11.0004
    11.0005  11.0005  13.4955  13.4955  13.4955  13.4955  13.4956  13.4956
    19.2370  19.2370  19.2371  19.2371  19.2371

          k = 0.0000-0.5774 0.2041 (  3214 PWs)   bands (ev):

     5.3254   5.3254   8.1512   8.1513   8.1513   8.1513   8.1514   8.1514
     8.7260   8.7260   8.7261   8.7261   8.7262   8.7262   9.3118   9.3118
     9.5839   9.5839   9.5841   9.5841   9.5843   9.5843   9.7247   9.7247
     9.7247   9.7247  10.2071  10.2071  10.2072  10.2072  10.2073  10.2073
    10.4755  10.4755  10.4755  10.4755  11.0000  11.0001  11.0002  11.0002
    11.0003  11.0003  13.4954  13.4954  13.4955  13.4955  13.4956  13.4957
    19.2370  19.2371  19.2371  19.2371  19.2371

          k = 0.0000-0.5774-0.4082 (  3250 PWs)   bands (ev):

     5.9664   5.9664   7.8668   7.8668   7.8668   7.8668   8.4520   8.4520
     8.8505   8.8505   9.0566   9.0566   9.0566   9.0566   9.0611   9.0611
     9.0611   9.0611   9.2703   9.2703   9.2703   9.2704   9.9301   9.9301
    10.0670  10.0670  10.0670  10.0670  10.2286  10.2286  10.2286  10.2286
    10.3506  10.3506  10.3906  10.3906  10.3906  10.3906  10.6638  10.6638
    11.1034  11.1034  12.2635  12.2635  12.2635  12.2635  18.7361  18.7361
    18.7361  18.7361  20.8439  21.2977  21.2979

     the Fermi energy is    13.3289 ev

!    total energy              =   -1704.65881411 Ry
     total all-electron energy =    -26479.696943 Ry
     estimated scf accuracy    <       0.00000043 Ry
     smearing contrib. (-TS)   =      -0.00377916 Ry
     internal energy E=F+TS    =   -1704.65503495 Ry

     The total energy is F=E-TS. E is the sum of the following terms:
     one-electron contribution =    -225.86713626 Ry
     hartree contribution      =     245.55385063 Ry
     xc contribution           =    -357.00627597 Ry
     ewald contribution        =    -648.54903537 Ry
     one-center paw contrib.   =    -718.78643798 Ry

     convergence has been achieved in   8 iterations

     Writing all to output data dir ./tmp/cu.save/
 
     init_run     :      0.24s CPU      0.28s WALL (       1 calls)
     electrons    :      1.98s CPU      2.09s WALL (       1 calls)

     Callmd by init_run:
     wfcinit      :      0.05s CPU      0.06s WALL (       1 calls)
     potinit      :      0.07s CPU      0.08s WALL (       1 calls)
     hinit0       :      0.08s CPU      0.10s WALL (       1 calls)

     Called by electrons:
     c_bands      :      0.98s CPU      1.06s WALL (       9 calls)
     sum_band     :      0.27s CPU      0.29s WALL (       9 calls)
     v_of_rho     :      0.03s CPU      0.03s WALL (       9 calls)
     newd         :      0.05s CPU      0.06s WALL (       9 calls)
     PAW_pot      :      0.66s CPU      0.67s WALL (       9 calls)
     mix_rho      :      0.00s CPU      0.01s WALL (       9 calls)

     Called by c_bands:
     init_us_2    :      0.01s CPU      0.01s WALL (      38 calls)
     init_us_2:cp :      0.01s CPU      0.01s WALL (      38 calls)
     cegterg      :      0.87s CPU      0.93s WALL (      18 calls)

     Called by *egterg:
     cdiaghg      :      0.16s CPU      0.17s WALL (      68 calls)
     h_psi        :      0.59s CPU      0.66s WALL (      72 calls)
     s_psi        :      0.03s CPU      0.03s WALL (      72 calls)
     g_psi        :      0.00s CPU      0.00s WALL (      52 calls)

     Called by h_psi:
     h_psi:calbec :      0.04s CPU      0.04s WALL (      72 calls)
     vloc_psi     :      0.52s CPU      0.58s WALL (      72 calls)
     add_vuspsi   :      0.03s CPU      0.03s WALL (      72 calls)

     General routines
     calbec       :      0.06s CPU      0.06s WALL (      90 calls)
     fft          :      0.07s CPU      0.09s WALL (     116 calls)
     ffts         :      0.02s CPU      0.02s WALL (      18 calls)
     fftw         :      0.53s CPU      0.60s WALL (    6314 calls)
     interpolate  :      0.01s CPU      0.01s WALL (       9 calls)
 
     Parallel routines
 
     PWSCF        :      2.40s CPU      2.62s WALL

 
   This run was terminated on:  22:51:30  25Feb2024            

=------------------------------------------------------------------------------=
   JOB DONE.
=------------------------------------------------------------------------------=
