
     Program PWSCF v.7.2 starts on 25Feb2024 at 22:28:34 

     This program is part of the open-source Quantum ESPRESSO suite
     for quantum simulation of materials; please cite
         "P. Giannozzi et al., J. Phys.:Condens. Matter 21 395502 (2009);
         "P. Giannozzi et al., J. Phys.:Condens. Matter 29 465901 (2017);
         "P. Giannozzi et al., J. Chem. Phys. 152 154105 (2020);
          URL http://www.quantum-espresso.org", 
     in publications or presentations arising from this work. More details at
     http://www.quantum-espresso.org/quote

     Parallel version (MPI), running on    24 processors

     MPI processes distributed on     1 nodes
     44565 MiB available memory on the printing compute node when the environment starts
 
     Waiting for input...
     Reading input from standard input
Warning: card &IONS ignored
Warning: card / ignored
Warning: card &CELL ignored
Warning: card / ignored

     Current dimensions of program PWSCF are:
     Max number of different atomic species (ntypx) = 10
     Max number of k-points (npk) =  40000
     Max angular momentum in pseudopotentials (lmaxx) =  4

     Atomic positions and unit cell read from directory:
     ./tmp/cu.save/
     Atomic positions from file used, from input discarded
 
     file Cu.pbe-dn-kjpaw_psl.1.0.0.UPF: wavefunction(s)  4S 3D renormalized
     Found identity + (  0.0000  0.0000 -0.5000) symmetry
     This is a supercell, fractional translations are disabled
     Message from routine setup:
     using ibrav=0 with symmetry is DISCOURAGED, use correct ibrav instead
 
     R & G space division:  proc/nbgrp/npool/nimage =      24
     Subspace diagonalization in iterative solution of the eigenvalue problem:
     a serial algorithm will be used

 
     Parallelization info
     --------------------
     sticks:   dense  smooth     PW     G-vecs:    dense   smooth      PW
     Min         183     138     38                 9133     6020     884
     Max         184     140     39                 9136     6023     887
     Sum        4397    3333    933               219223   144493   21247
 
     Using Slab Decomposition
 


     bravais-lattice index     =            0
     lattice parameter (alat)  =      15.3068  a.u.
     unit-cell volume          =    3586.3416 (a.u.)^3
     number of atoms/cell      =            8
     number of atomic types    =            1
     number of electrons       =        88.00
     number of Kohn-Sham states=           53
     kinetic-energy cutoff     =      44.6641  Ry
     charge density cutoff     =     235.8754  Ry
     Exchange-correlation= SLA  PW   PBX  PBC
                           (   1   4   3   4   0   0   0)

     celldm(1)=  15.306782  celldm(2)=   0.000000  celldm(3)=   0.000000
     celldm(4)=   0.000000  celldm(5)=   0.000000  celldm(6)=   0.000000

     crystal axes: (cart. coord. in units of alat)
               a(1) = (   1.000000   0.000000   0.000000 )  
               a(2) = (   0.000000   1.000000   0.000000 )  
               a(3) = (   0.000000   0.000000   1.000000 )  

     reciprocal axes: (cart. coord. in units 2 pi/alat)
               b(1) = (  1.000000  0.000000  0.000000 )  
               b(2) = (  0.000000  1.000000  0.000000 )  
               b(3) = (  0.000000  0.000000  1.000000 )  


     PseudoPot. # 1 for Cu read from file:
     ./pseudo/Cu.pbe-dn-kjpaw_psl.1.0.0.UPF
     MD5 check sum: cfffd1f38ee05704b3e17f46f1730a6f
     Pseudo is Projector augmented-wave + core cor, Zval = 11.0
     Generated using &quot;atomic&quot; code by A. Dal Corso  v.6.3
     Shape of augmentation charge: PSQ
     Using radial grid of 1199 points,  6 beta functions with: 
                l(1) =   0
                l(2) =   0
                l(3) =   1
                l(4) =   1
                l(5) =   2
                l(6) =   2
     Q(r) pseudized with 0 coefficients 


     atomic species   valence    mass     pseudopotential
        Cu            11.00    63.54600     Cu( 1.00)

     48 Sym. Ops., with inversion, found



   Cartesian axes

     site n.     atom                  positions (alat units)
         1           Cu  tau(   1) = (   0.0000000   0.0000000   0.0000000  )
         2           Cu  tau(   2) = (   0.0000000   0.0000000   0.5000000  )
         3           Cu  tau(   3) = (   0.0000000   0.5000000   0.0000000  )
         4           Cu  tau(   4) = (   0.0000000   0.5000000   0.5000000  )
         5           Cu  tau(   5) = (   0.5000000   0.0000000   0.0000000  )
         6           Cu  tau(   6) = (   0.5000000   0.0000000   0.5000000  )
         7           Cu  tau(   7) = (   0.5000000   0.5000000   0.0000000  )
         8           Cu  tau(   8) = (   0.5000000   0.5000000   0.5000000  )

     number of k points=     4  Gaussian smearing, width (Ry)=  0.0100
                       cart. coord. in units 2pi/alat
        k(    1) = (   0.1666667   0.1666667   0.1666667), wk =   0.5925926
        k(    2) = (   0.1666667   0.1666667  -0.5000000), wk =   0.8888889
        k(    3) = (   0.1666667  -0.5000000  -0.5000000), wk =   0.4444444
        k(    4) = (  -0.5000000  -0.5000000  -0.5000000), wk =   0.0740741

     Dense  grid:   219223 G-vectors     FFT dimensions: (  75,  75,  75)

     Smooth grid:   144493 G-vectors     FFT dimensions: (  72,  72,  72)

     Estimated max dynamical RAM per process >      33.32 MB

     Estimated total dynamical RAM >     799.59 MB

     Check: negative core charge=   -0.000003

     The potential is recalculated from file :
     ./tmp/cu.save/charge-density

     Starting wfcs are   72 randomized atomic wfcs
     Checking if some PAW data can be deallocated... 

     Band Structure Calculation
     Davidson diagonalization with overlap
     c_bands:  1 eigenvalues not converged
     c_bands:  1 eigenvalues not converged
     c_bands:  5 eigenvalues not converged

     ethr =  1.14E-11,  avg # of iterations =105.0

     total cpu time spent up to now is        8.1 secs

     End of band structure calculation

          k = 0.1667 0.1667 0.1667 ( 18034 PWs)   bands (ev):

    -3.1948  -2.4807  -2.4807  -2.4807  -2.3757  -2.3757  -2.3605  -2.3604
    -2.3604  -2.3597  -2.3595  -2.3595  -2.3463  -2.3463  -2.3463  -2.3283
    -2.3232  -2.3232  -2.2592  -2.2592  -2.2590  -2.2545  -2.2543  -2.2543
    -2.2483  -2.2483  -2.2482  -2.2476  -2.2474  -2.2474  -2.2075  -2.2066
    -2.2066  -2.2027  -2.2027  -2.2027  -2.1757  -2.1755  -2.1755  -2.1709
    -2.1709  -1.8268  -1.8268  -1.8268  -0.8979  -0.8979  -0.8978   0.1100
     0.8484   0.8484   0.8485   1.9841   1.9841

          k = 0.1667 0.1667-0.5000 ( 18146 PWs)   bands (ev):

    -2.7931  -2.7929  -2.3800  -2.3799  -2.3799  -2.3796  -2.3683  -2.3681
    -2.3364  -2.3362  -2.3065  -2.3065  -2.3063  -2.3063  -2.2954  -2.2952
    -2.2900  -2.2899  -2.2872  -2.2870  -2.2659  -2.2659  -2.2658  -2.2655
    -2.2550  -2.2548  -2.2522  -2.2522  -2.2520  -2.2517  -2.2309  -2.2307
    -2.2272  -2.2270  -2.2245  -2.2245  -2.2243  -2.2243  -2.2049  -2.2047
    -2.1732  -2.1730  -1.5362  -1.5362  -1.5361  -1.5360  -0.5293  -0.5292
     1.3045   1.3045   1.3046   1.3046   2.4214

          k = 0.1667-0.5000-0.5000 ( 18072 PWs)   bands (ev):

    -2.4619  -2.4619  -2.4619  -2.4616  -2.3057  -2.3057  -2.3055  -2.3055
    -2.2971  -2.2971  -2.2970  -2.2969  -2.2900  -2.2900  -2.2898  -2.2898
    -2.2887  -2.2887  -2.2887  -2.2884  -2.2734  -2.2733  -2.2733  -2.2730
    -2.2673  -2.2673  -2.2672  -2.2670  -2.2338  -2.2337  -2.2336  -2.2336
    -2.2314  -2.2314  -2.2313  -2.2311  -2.2265  -2.2265  -2.2264  -2.2264
    -2.1712  -2.1712  -2.1712  -2.1711  -1.1801  -1.1800  -1.1800  -1.1798
     1.7531   1.7531   1.7531   1.7533   2.9710

          k =-0.5000-0.5000-0.5000 ( 18048 PWs)   bands (ev):

    -2.2951  -2.2951  -2.2951  -2.2951  -2.2949  -2.2947  -2.2947  -2.2947
    -2.2856  -2.2856  -2.2856  -2.2856  -2.2856  -2.2856  -2.2856  -2.2856
    -2.2854  -2.2854  -2.2854  -2.2854  -2.2854  -2.2854  -2.2848  -2.2848
    -2.2544  -2.2544  -2.2544  -2.2544  -2.2544  -2.2544  -2.2544  -2.2544
    -2.2543  -2.2543  -2.2543  -2.2542  -2.2542  -2.2538  -2.2538  -2.2538
    -1.8713  -1.8712  -1.8712  -1.8712  -1.8712  -1.8712  -1.8712  -1.8709
     3.3639   3.3640   3.3640   3.3640   3.3640

     the Fermi energy is    -1.5561 ev
     (compare with:    -1.5374 eV, computed in scf)

     Writing all to output data dir ./tmp/cu.save/
 
     init_run     :      0.32s CPU      0.37s WALL (       1 calls)
     electrons    :      7.50s CPU      7.61s WALL (       1 calls)

     Called by init_run:
     wfcinit      :      0.00s CPU      0.00s WALL (       1 calls)
     potinit      :      0.12s CPU      0.13s WALL (       1 calls)
     hinit0       :      0.05s CPU      0.06s WALL (       1 calls)

     Called by electrons:
     c_bands      :      7.50s CPU      7.61s WALL (       1 calls)
     v_of_rho     :      0.06s CPU      0.06s WALL (       1 calls)
     newd         :      0.03s CPU      0.04s WALL (       1 calls)
     PAW_pot      :      0.05s CPU      0.07s WALL (       1 calls)

     Called by c_bands:
     init_us_2    :      0.00s CPU      0.00s WALL (       4 calls)
     init_us_2:cp :      0.00s CPU      0.00s WALL (       4 calls)
     cegterg      :      7.24s CPU      7.32s WALL (      21 calls)

     Called by *egterg:
     cdiaghg      :      0.93s CPU      0.94s WALL (     424 calls)
     h_psi        :      4.20s CPU      4.29s WALL (     445 calls)
     s_psi        :      0.36s CPU      0.36s WALL (     445 calls)
     g_psi        :      0.04s CPU      0.04s WALL (     420 calls)

     Called by h_psi:
     h_psi:calbec :      0.65s CPU      0.66s WALL (     445 calls)
     vloc_psi     :      3.10s CPU      3.19s WALL (     445 calls)
     add_vuspsi   :      0.41s CPU      0.41s WALL (     445 calls)

     General routines
     calbec       :      0.65s CPU      0.66s WALL (     445 calls)
     fft          :      0.02s CPU      0.03s WALL (      13 calls)
     ffts         :      0.00s CPU      0.00s WALL (       1 calls)
     fftw         :      2.52s CPU      2.60s WALL (   17816 calls)
     interpolate  :      0.00s CPU      0.00s WALL (       1 calls)
     davcio       :      0.00s CPU      0.00s WALL (       8 calls)
 
     Parallel routines
 
     PWSCF        :      8.01s CPU      8.22s WALL

 
   This run was terminated on:  22:28:42  25Feb2024            

=------------------------------------------------------------------------------=
   JOB DONE.
=------------------------------------------------------------------------------=
