
     Program PWSCF v.7.2 starts on 25Feb2024 at 23:21:38 

     This program is part of the open-source Quantum ESPRESSO suite
     for quantum simulation of materials; please cite
         "P. Giannozzi et al., J. Phys.:Condens. Matter 21 395502 (2009);
         "P. Giannozzi et al., J. Phys.:Condens. Matter 29 465901 (2017);
         "P. Giannozzi et al., J. Chem. Phys. 152 154105 (2020);
          URL http://www.quantum-espresso.org", 
     in publications or presentations arising from this work. More details at
     http://www.quantum-espresso.org/quote

     Parallel version (MPI), running on    24 processors

     MPI processes distributed on     1 nodes
     44594 MiB available memory on the printing compute node when the environment starts
 
     Waiting for input...
     Reading input from standard input
Warning: card &CELL ignored
Warning: card / ignored

     Current dimensions of program PWSCF are:
     Max number of different atomic species (ntypx) = 10
     Max number of k-points (npk) =  40000
     Max angular momentum in pseudopotentials (lmaxx) =  4
     file Cuh.UPF: wavefunction(s)  4S renormalized
     file Cu.pbe-dn-kjpaw_psl.1.0.0.UPF: wavefunction(s)  4S 3D renormalized
     Message from routine setup:
     using ibrav=0 with symmetry is DISCOURAGED, use correct ibrav instead
 
     R & G space division:  proc/nbgrp/npool/nimage =      24
     Subspace diagonalization in iterative solution of the eigenvalue problem:
     one sub-group per band group will be used
     custom distributed-memory algorithm (size of sub-group:  2*  2 procs)

 
     Parallelization info
     --------------------
     sticks:   dense  smooth     PW     G-vecs:    dense   smooth      PW
     Min         162     162     43                 6711     6689     925
     Max         166     163     44                 6723     6691     929
     Sum        3901    3889   1039               161149   160549   22227
 
     Using Slab Decomposition
 


     bravais-lattice index     =            0
     lattice parameter (alat)  =      14.5166  a.u.
     unit-cell volume          =    2163.1180 (a.u.)^3
     number of atoms/cell      =           27
     number of atomic types    =            2
     number of electrons       =       297.00
     number of Kohn-Sham states=          179
     kinetic-energy cutoff     =      67.0000  Ry
     charge density cutoff     =     269.0000  Ry
     scf convergence threshold =      1.0E-06
     mixing beta               =       0.7000
     number of iterations used =            8  plain     mixing
     Exchange-correlation= SLA  PW   PBX  PBC
                           (   1   4   3   4   0   0   0)

     celldm(1)=  14.516605  celldm(2)=   0.000000  celldm(3)=   0.000000
     celldm(4)=   0.000000  celldm(5)=   0.000000  celldm(6)=   0.000000

     crystal axes: (cart. coord. in units of alat)
               a(1) = (   1.000000   0.000000   0.000000 )  
               a(2) = (   0.500000   0.866025   0.000000 )  
               a(3) = (   0.500000   0.288675   0.816497 )  

     reciprocal axes: (cart. coord. in units 2 pi/alat)
               b(1) = (  1.000000 -0.577350 -0.408248 )  
               b(2) = (  0.000000  1.154701 -0.408248 )  
               b(3) = (  0.000000  0.000000  1.224745 )  


     PseudoPot. # 1 for Cu read from file:
     ./pseudo/Cuh.UPF
     MD5 check sum: 79094201ef4d7dce6b3a037154c5f280
     Pseudo is Projector augmented-wave + core cor, Zval = 12.0
     Generated using 'atomic' code by A. Dal Corso  v.7.2
     Shape of augmentation charge: PSQ
     Using radial grid of 1199 points,  6 beta functions with: 
                l(1) =   0
                l(2) =   0
                l(3) =   1
                l(4) =   1
                l(5) =   2
                l(6) =   2
     Q(r) pseudized with 0 coefficients 


     PseudoPot. # 2 for Cu read from file:
     ./pseudo/Cu.pbe-dn-kjpaw_psl.1.0.0.UPF
     MD5 check sum: cfffd1f38ee05704b3e17f46f1730a6f
     Pseudo is Projector augmented-wave + core cor, Zval = 11.0
     Generated using &quot;atomic&quot; code by A. Dal Corso  v.6.3
     Shape of augmentation charge: PSQ
     Using radial grid of 1199 points,  6 beta functions with: 
                l(1) =   0
                l(2) =   0
                l(3) =   1
                l(4) =   1
                l(5) =   2
                l(6) =   2
     Q(r) pseudized with 0 coefficients 


     atomic species   valence    mass     pseudopotential
        Cuh           12.00    63.54600     Cu( 1.00)
        Cu            11.00    63.54600     Cu( 1.00)

     12 Sym. Ops., with inversion, found



   Cartesian axes

     site n.     atom                  positions (alat units)
         1           Cuh tau(   1) = (   0.0000000   0.0000000   0.0000000  )
         2           Cu  tau(   2) = (   0.1666667   0.0962250   0.2721655  )
         3           Cu  tau(   3) = (   0.3333333   0.1924501   0.5443311  )
         4           Cu  tau(   4) = (   0.1666667   0.2886751   0.0000000  )
         5           Cu  tau(   5) = (   0.3333333   0.3849002   0.2721655  )
         6           Cu  tau(   6) = (   0.5000000   0.4811252   0.5443311  )
         7           Cu  tau(   7) = (   0.3333333   0.5773503   0.0000000  )
         8           Cu  tau(   8) = (   0.5000000   0.6735753   0.2721655  )
         9           Cu  tau(   9) = (   0.6666667   0.7698004   0.5443311  )
        10           Cu  tau(  10) = (   0.3333333   0.0000000   0.0000000  )
        11           Cu  tau(  11) = (   0.5000000   0.0962250   0.2721655  )
        12           Cu  tau(  12) = (   0.6666667   0.1924501   0.5443311  )
        13           Cu  tau(  13) = (   0.5000000   0.2886751   0.0000000  )
        14           Cu  tau(  14) = (   0.6666667   0.3849002   0.2721655  )
        15           Cu  tau(  15) = (   0.8333333   0.4811252   0.5443311  )
        16           Cu  tau(  16) = (   0.6666667   0.5773503   0.0000000  )
        17           Cu  tau(  17) = (   0.8333333   0.6735753   0.2721655  )
        18           Cu  tau(  18) = (   1.0000000   0.7698004   0.5443311  )
        19           Cu  tau(  19) = (   0.6666667   0.0000000   0.0000000  )
        20           Cu  tau(  20) = (   0.8333333   0.0962250   0.2721655  )
        21           Cu  tau(  21) = (   1.0000000   0.1924501   0.5443311  )
        22           Cu  tau(  22) = (   0.8333333   0.2886751   0.0000000  )
        23           Cu  tau(  23) = (   1.0000000   0.3849002   0.2721655  )
        24           Cu  tau(  24) = (   1.1666667   0.4811252   0.5443311  )
        25           Cu  tau(  25) = (   1.0000000   0.5773503   0.0000000  )
        26           Cu  tau(  26) = (   1.1666667   0.6735753   0.2721655  )
        27           Cu  tau(  27) = (   1.3333333   0.7698004   0.5443311  )

     number of k points=     4  Gaussian smearing, width (Ry)=  0.0100
                       cart. coord. in units 2pi/alat
        k(    1) = (   0.0000000   0.0000000   0.0000000), wk =   0.2500000
        k(    2) = (   0.0000000   0.0000000  -0.6123724), wk =   0.2500000
        k(    3) = (   0.0000000  -0.5773503   0.2041241), wk =   0.7500000
        k(    4) = (   0.0000000  -0.5773503  -0.4082483), wk =   0.7500000

     Dense  grid:   161149 G-vectors     FFT dimensions: (  75,  75,  75)

     Smooth grid:   160549 G-vectors     FFT dimensions: (  75,  75,  75)

     Estimated max dynamical RAM per process >      46.46 MB

     Estimated total dynamical RAM >       1.09 GB

     Initial potential from superposition of free atoms

     starting charge     296.9941, renormalised to     297.0000
     Starting wfcs are  243 randomized atomic wfcs
     Checking if some PAW data can be deallocated... 

     total cpu time spent up to now is        2.1 secs

     Self-consistent Calculation

     iteration #  1     ecut=    67.00 Ry     beta= 0.70
     Davidson diagonalization with overlap
     ethr =  1.00E-02,  avg # of iterations =  2.8

     total cpu time spent up to now is        5.8 secs

     total energy              =   -5757.44458975 Ry
     estimated scf accuracy    <       4.84379599 Ry

     iteration #  2     ecut=    67.00 Ry     beta= 0.70
     Davidson diagonalization with overlap
     ethr =  1.63E-03,  avg # of iterations =  6.0

     total cpu time spent up to now is       11.6 secs

     total energy              =   -5746.58049798 Ry
     estimated scf accuracy    <     145.31590547 Ry

     iteration #  3     ecut=    67.00 Ry     beta= 0.70
     Davidson diagonalization with overlap
     ethr =  1.63E-03,  avg # of iterations =  6.0

     total cpu time spent up to now is       16.7 secs

     total energy              =   -5760.24413910 Ry
     estimated scf accuracy    <       7.96789703 Ry

     iteration #  4     ecut=    67.00 Ry     beta= 0.70
     Davidson diagonalization with overlap
     ethr =  1.63E-03,  avg # of iterations =  2.0

     total cpu time spent up to now is       20.5 secs

     total energy              =   -5760.89744937 Ry
     estimated scf accuracy    <       1.84653674 Ry

     iteration #  5     ecut=    67.00 Ry     beta= 0.70
     Davidson diagonalization with overlap
     ethr =  6.22E-04,  avg # of iterations =  2.0

     total cpu time spent up to now is       24.1 secs

     total energy              =   -5760.99497980 Ry
     estimated scf accuracy    <       1.02051414 Ry

     iteration #  6     ecut=    67.00 Ry     beta= 0.70
     Davidson diagonalization with overlap
     ethr =  3.44E-04,  avg # of iterations =  6.0

     total cpu time spent up to now is       27.8 secs

     total energy              =   -5760.97218845 Ry
     estimated scf accuracy    <       0.40510102 Ry

     iteration #  7     ecut=    67.00 Ry     beta= 0.70
     Davidson diagonalization with overlap
     ethr =  1.36E-04,  avg # of iterations =  2.0

     total cpu time spent up to now is       31.1 secs

     total energy              =   -5760.98532252 Ry
     estimated scf accuracy    <       0.17810006 Ry

     iteration #  8     ecut=    67.00 Ry     beta= 0.70
     Davidson diagonalization with overlap
     ethr =  6.00E-05,  avg # of iterations =  1.8

     total cpu time spent up to now is       34.2 secs

     total energy              =   -5760.98358591 Ry
     estimated scf accuracy    <       0.14948130 Ry

     iteration #  9     ecut=    67.00 Ry     beta= 0.70
     Davidson diagonalization with overlap
     ethr =  5.03E-05,  avg # of iterations =  1.0

     total cpu time spent up to now is       37.2 secs

     total energy              =   -5760.97358783 Ry
     estimated scf accuracy    <       0.13632559 Ry

     iteration # 10     ecut=    67.00 Ry     beta= 0.70
     Davidson diagonalization with overlap
     ethr =  4.59E-05,  avg # of iterations =  1.8

     total cpu time spent up to now is       40.5 secs

     total energy              =   -5760.92567497 Ry
     estimated scf accuracy    <       0.10957975 Ry

     iteration # 11     ecut=    67.00 Ry     beta= 0.70
     Davidson diagonalization with overlap
     ethr =  3.69E-05,  avg # of iterations =  7.0

     total cpu time spent up to now is       44.7 secs

     total energy              =   -5760.94980169 Ry
     estimated scf accuracy    <       0.00997661 Ry

     iteration # 12     ecut=    67.00 Ry     beta= 0.70
     Davidson diagonalization with overlap
     ethr =  3.36E-06,  avg # of iterations =  7.2

     total cpu time spent up to now is       49.2 secs

     total energy              =   -5760.94985630 Ry
     estimated scf accuracy    <       0.00482425 Ry

     iteration # 13     ecut=    67.00 Ry     beta= 0.70
     Davidson diagonalization with overlap
     ethr =  1.62E-06,  avg # of iterations =  2.0

     total cpu time spent up to now is       52.7 secs

     total energy              =   -5760.94922584 Ry
     estimated scf accuracy    <       0.00273951 Ry

     iteration # 14     ecut=    67.00 Ry     beta= 0.70
     Davidson diagonalization with overlap
     ethr =  9.22E-07,  avg # of iterations =  8.0

     total cpu time spent up to now is       56.9 secs

     total energy              =   -5760.94938898 Ry
     estimated scf accuracy    <       0.00176142 Ry

     iteration # 15     ecut=    67.00 Ry     beta= 0.70
     Davidson diagonalization with overlap
     ethr =  5.93E-07,  avg # of iterations =  7.0

     total cpu time spent up to now is       61.1 secs

     total energy              =   -5760.94970182 Ry
     estimated scf accuracy    <       0.00065928 Ry

     iteration # 16     ecut=    67.00 Ry     beta= 0.70
     Davidson diagonalization with overlap
     ethr =  2.22E-07,  avg # of iterations =  5.8

     total cpu time spent up to now is       64.9 secs

     total energy              =   -5760.94971577 Ry
     estimated scf accuracy    <       0.00036697 Ry

     iteration # 17     ecut=    67.00 Ry     beta= 0.70
     Davidson diagonalization with overlap
     ethr =  1.24E-07,  avg # of iterations =  7.2

     total cpu time spent up to now is       69.0 secs

     total energy              =   -5760.94977338 Ry
     estimated scf accuracy    <       0.00000609 Ry

     iteration # 18     ecut=    67.00 Ry     beta= 0.70
     Davidson diagonalization with overlap
     ethr =  2.05E-09,  avg # of iterations =  6.0

     total cpu time spent up to now is       74.0 secs

     total energy              =   -5760.94977536 Ry
     estimated scf accuracy    <       0.00000251 Ry

     iteration # 19     ecut=    67.00 Ry     beta= 0.70
     Davidson diagonalization with overlap
     ethr =  8.45E-10,  avg # of iterations =  2.0

     total cpu time spent up to now is       77.3 secs

     total energy              =   -5760.94977550 Ry
     estimated scf accuracy    <       0.00000139 Ry

     iteration # 20     ecut=    67.00 Ry     beta= 0.70
     Davidson diagonalization with overlap
     ethr =  4.69E-10,  avg # of iterations =  2.0

     total cpu time spent up to now is       80.6 secs

     End of self-consistent calculation

          k = 0.0000 0.0000 0.0000 ( 19987 PWs)   bands (ev):

     3.2213   5.2744   5.2744   5.2745   5.3613   5.3613   6.2396   6.6133
     6.6133   6.6134   6.6914   6.8467   6.8468   6.8468   7.2697   7.3445
     7.3446   7.3446   7.5692   7.5692   8.5730   8.5775   8.5819   8.5819
     8.5865   8.5865   8.5866   8.5901   8.5901   8.5901   8.6072   8.6072
     8.6072   8.6449   8.6449   8.7182   8.7182   8.7183   8.7746   8.7769
     8.7769   8.7770   8.7835   8.7835   8.7837   8.9414   8.9415   8.9415
     9.1232   9.1232   9.4369   9.4369   9.4371   9.4991   9.4991   9.5068
     9.5068   9.5070   9.5117   9.5541   9.5541   9.5542   9.5812   9.5911
     9.5912   9.5912   9.6209   9.6368   9.6368   9.6370   9.6773   9.6774
     9.6774   9.7033   9.7033   9.7034   9.7062   9.7063   9.7063   9.7154
     9.7154   9.7154   9.7247   9.7247   9.9242   9.9242  10.2369  10.2369
    10.2369  10.3647  10.3647  10.3648  10.3727  10.3808  10.3808  10.3810
    10.3902  10.3902  10.3903  10.4286  10.4286  10.4870  10.5223  10.5223
    10.5223  10.5418  10.5418  10.6502  10.6502  10.6796  10.6796  10.6796
    10.6854  10.6855  10.6855  10.6903  10.6903  10.6904  10.7247  10.7247
    10.7247  10.7435  10.7435  10.7435  10.7448  10.7448  10.7448  10.7548
    10.7549  10.7549  10.7649  10.7649  10.8000  10.8002  10.8002  10.8056
    10.8136  10.8137  10.8137  10.8242  10.8242  10.8263  10.8263  10.8267
    10.8267  10.8267  10.8407  10.8680  10.8680  10.8680  15.6634  15.7249
    15.7249  15.7250  15.7493  15.7493  15.7494  15.7983  15.7983  15.8680
    15.8680  15.8680  18.3077  18.3077  18.3077  18.3848  18.3848  18.3848
    18.5537  18.5537  18.5538  18.5595  18.5676  18.5676  20.4528  20.8494
    21.0216  21.0238  21.0262

          k = 0.0000 0.0000-0.6124 ( 20070 PWs)   bands (ev):

     4.1183   4.2835   5.2987   5.2987   5.3138   5.3677   5.3677   6.3014
     6.4971   6.4971   6.5699   6.6790   6.6790   7.6245   7.7456   7.7639
     7.8270   7.8270   7.9721   7.9721   8.0434   8.0780   8.0795   8.0795
     8.2671   8.2671   8.4853   8.4953   8.4953   8.5742   8.5742   8.5918
     8.6884   8.6884   8.7281   8.7408   8.7408   8.7677   8.7702   8.8183
     8.8183   8.8535   8.9537   8.9537   8.9911   9.0090   9.0090   9.0571
     9.1609   9.1609   9.2907   9.2907   9.3048   9.3302   9.3854   9.3870
     9.3870   9.3928   9.4468   9.4499   9.4499   9.4547   9.4581   9.4581
     9.4761   9.4845   9.4845   9.5268   9.5268   9.6364   9.6500   9.6500
     9.6727   9.6727   9.6742   9.7661   9.7661   9.7714   9.7714   9.8917
     9.9162   9.9162   9.9187   9.9613   9.9613  10.0018  10.0104  10.0104
    10.0548  10.0645  10.0645  10.0703  10.1575  10.1575  10.1651  10.1868
    10.1868  10.2967  10.2967  10.3086  10.3102  10.3649  10.3649  10.4280
    10.4280  10.4409  10.4409  10.5459  10.6256  10.6312  10.6363  10.6363
    10.6456  10.6456  10.6608  10.6779  10.6779  10.6827  10.7472  10.7472
    10.7582  10.7582  10.7808  10.8032  10.8032  10.8186  10.8186  10.8263
    10.8422  10.8422  10.8449  10.9014  10.9740  10.9858  10.9858  10.9999
    10.9999  11.0546  11.0546  11.0789  11.0810  11.0924  11.0924  11.5633
    12.1466  12.1760  12.1760  12.2525  12.2525  12.2554  13.6936  13.7123
    13.7885  13.7885  13.7893  13.7893  16.0533  16.0533  16.0592  16.0592
    16.1435  16.1979  16.2649  17.1139  17.3140  17.3140  17.3530  17.3530
    17.3912  19.4307  19.5071  19.5071  19.5277  19.5277  19.6084  21.3775
    21.3832  21.5065  21.5067

          k = 0.0000-0.5774 0.2041 ( 20070 PWs)   bands (ev):

     4.1185   4.2833   5.2987   5.2987   5.3138   5.3677   5.3677   6.3014
     6.4970   6.4972   6.5700   6.6789   6.6791   7.6244   7.7456   7.7639
     7.8269   7.8269   7.9721   7.9721   8.0434   8.0780   8.0795   8.0796
     8.2670   8.2672   8.4853   8.4952   8.4954   8.5741   8.5743   8.5918
     8.6884   8.6885   8.7281   8.7410   8.7410   8.7674   8.7700   8.8181
     8.8183   8.8534   8.9537   8.9537   8.9911   9.0090   9.0091   9.0572
     9.1609   9.1610   9.2907   9.2907   9.3047   9.3300   9.3854   9.3870
     9.3870   9.3928   9.4466   9.4500   9.4500   9.4549   9.4582   9.4582
     9.4761   9.4845   9.4846   9.5269   9.5271   9.6363   9.6499   9.6500
     9.6727   9.6727   9.6742   9.7663   9.7663   9.7712   9.7712   9.8917
     9.9161   9.9162   9.9188   9.9614   9.9616  10.0018  10.0102  10.0104
    10.0547  10.0644  10.0645  10.0704  10.1575  10.1576  10.1652  10.1868
    10.1868  10.2968  10.2968  10.3085  10.3100  10.3651  10.3651  10.4278
    10.4278  10.4412  10.4412  10.5458  10.6258  10.6313  10.6360  10.6362
    10.6457  10.6457  10.6608  10.6778  10.6778  10.6827  10.7471  10.7471
    10.7581  10.7582  10.7808  10.8028  10.8029  10.8186  10.8186  10.8262
    10.8422  10.8423  10.8449  10.9015  10.9742  10.9857  10.9857  10.9998
    10.9998  11.0546  11.0547  11.0789  11.0810  11.0924  11.0925  11.5633
    12.1466  12.1761  12.1761  12.2524  12.2525  12.2554  13.6936  13.7123
    13.7885  13.7885  13.7893  13.7893  16.0534  16.0534  16.0593  16.0593
    16.1433  16.1978  16.2649  17.1139  17.3139  17.3140  17.3529  17.3529
    17.3913  19.4307  19.5071  19.5071  19.5277  19.5277  19.6084  21.3774
    21.3831  21.5065  21.5065

          k = 0.0000-0.5774-0.4082 ( 20094 PWs)   bands (ev):

     4.4224   4.6043   5.2359   5.3263   5.3263   5.3281   5.3820   5.6562
     5.7670   5.7670   5.9523   7.8002   7.8627   7.9406   8.0069   8.0069
     8.0122   8.0453   8.0454   8.0764   8.0765   8.0879   8.1258   8.1279
     8.1530   8.1994   8.1994   8.2148   8.2985   8.2985   8.4327   8.4395
     8.6122   8.6127   8.6318   8.6893   8.6893   8.8177   8.8177   8.8339
     8.8419   8.8557   8.8897   9.0182   9.0183   9.1896   9.1977   9.1977
     9.2041   9.2154   9.2301   9.2301   9.2345   9.2599   9.2732   9.2912
     9.2913   9.3330   9.3331   9.3404   9.3407   9.3443   9.3588   9.5367
     9.5414   9.5820   9.5822   9.6737   9.6749   9.6750   9.6933   9.7076
     9.7328   9.7329   9.7338   9.7665   9.7667   9.7920   9.8188   9.8188
     9.8227   9.8924   9.9088   9.9137   9.9138   9.9150   9.9264   9.9265
     9.9396   9.9450   9.9451  10.0257  10.0258  10.0406  10.0430  10.0505
    10.1445  10.1509  10.1510  10.1686  10.2219  10.3533  10.4238  10.4714
    10.4868  10.4870  10.5029  10.5049  10.5092  10.5093  10.5802  10.5829
    10.5929  10.6011  10.6011  10.6457  10.6458  10.6742  10.6763  10.6765
    10.6862  10.7024  10.7870  10.7870  10.8680  10.8723  10.9003  10.9181
    10.9181  11.0140  11.0327  11.0336  11.0422  11.0423  11.0476  11.0955
    11.0956  11.1670  11.1677  11.1677  11.1701  12.4312  12.4313  12.4379
    12.4411  12.4858  12.4859  12.5211  12.5713  12.9325  12.9468  13.0461
    13.0461  13.0512  13.0512  13.1110  13.1261  14.0682  16.5167  16.5167
    16.5220  16.6692  17.3329  17.4524  17.5450  17.5450  17.5561  17.5561
    17.6382  17.6439  19.6036  20.0525  20.0998  20.2542  20.2542  21.0654
    21.2290  21.2290  21.2855

     the Fermi energy is    12.5092 ev

!    total energy              =   -5760.94977544 Ry
     total all-electron energy =    -88707.665697 Ry
     estimated scf accuracy    <       0.00000035 Ry
     smearing contrib. (-TS)   =      -0.01448791 Ry
     internal energy E=F+TS    =   -5760.93528754 Ry

     The total energy is F=E-TS. E is the sum of the following terms:
     one-electron contribution =    -783.13193179 Ry
     hartree contribution      =     838.63714557 Ry
     xc contribution           =   -1206.70769912 Ry
     ewald contribution        =   -2203.81607471 Ry
     one-center paw contrib.   =   -2405.91672748 Ry

     convergence has been achieved in  20 iterations

     Writing all to output data dir ./tmp/cu.save/
 
     init_run     :      1.81s CPU      1.95s WALL (       1 calls)
     electrons    :     76.42s CPU     78.68s WALL (       1 calls)

     Called by init_run:
     wfcinit      :      1.35s CPU      1.42s WALL (       1 calls)
     potinit      :      0.23s CPU      0.24s WALL (       1 calls)
     hinit0       :      0.09s CPU      0.11s WALL (       1 calls)

     Called by electrons:
     c_bands      :     62.25s CPU     63.84s WALL (      20 calls)
     sum_band     :      8.70s CPU      9.28s WALL (      20 calls)
     v_of_rho     :      0.24s CPU      0.25s WALL (      21 calls)
     newd         :      1.20s CPU      1.23s WALL (      21 calls)
     PAW_pot      :      3.91s CPU      3.93s WALL (      21 calls)
     mix_rho      :      0.14s CPU      0.14s WALL (      20 calls)

     Called by c_bands:
     init_us_2    :      0.78s CPU      0.80s WALL (     164 calls)
     init_us_2:cp :      0.77s CPU      0.80s WALL (     164 calls)
     cegterg      :     59.75s CPU     61.30s WALL (      80 calls)

     Called by *egterg:
     cdiaghg      :      9.77s CPU      9.96s WALL (     422 calls)
     h_psi        :     28.61s CPU     29.78s WALL (     426 calls)
     s_psi        :      4.53s CPU      4.55s WALL (     426 calls)
     g_psi        :      0.11s CPU      0.11s WALL (     342 calls)

     Called by h_psi:
     h_psi:calbec :      6.01s CPU      6.07s WALL (     426 calls)
     vloc_psi     :     16.20s CPU     17.23s WALL (     426 calls)
     add_vuspsi   :      6.05s CPU      6.11s WALL (     426 calls)

     General routines
     calbec       :      8.19s CPU      8.28s WALL (     506 calls)
     fft          :      0.19s CPU      0.22s WALL (     271 calls)
     ffts         :      0.02s CPU      0.02s WALL (      41 calls)
     fftw         :     18.33s CPU     19.82s WALL (   80064 calls)
     interpolate  :      0.04s CPU      0.04s WALL (      21 calls)
 
     Parallel routines
 
     PWSCF        :   1m18.58s CPU   1m21.37s WALL

 
   This run was terminated on:  23:22:59  25Feb2024            

=------------------------------------------------------------------------------=
   JOB DONE.
=------------------------------------------------------------------------------=
